ITEM: TIMESTEP
0.000000e+00
ITEM: NUMBER OF ATOMS
864
ITEM: BOX BOUNDS pp pp pp
0.0 6.000000e+00
0.0 6.000000e+00
0.0 6.000000e+00
ITEM: ATOMS id type x y z
1 1 6.837721e-04 -9.930635e-05 -3.034845e-04
2 1 4.993547e-01 5.000970e-01 7.922321e-04
3 1 4.996699e-01 -4.207001e-04 4.991839e-01
4 1 7.142135e-04 5.006360e-01 4.993570e-01
5 1 3.332894e-04 9.708143e-05 1.000864e+00
6 1 4.990953e-01 5.003018e-01 1.000929e+00
7 1 5.000214e-01 -2.012875e-05 1.500950e+00
8 1 2.189703e-04 5.003925e-01 1.500573e+00
9 1 1.215832e-04 7.890742e-04 2.000615e+00
10 1 4.997152e-01 5.005033e-01 1.999337e+00
11 1 4.991118e-01 8.581661e-04 2.500720e+00
12 1 -6.491341e-04 4.996593e-01 2.500590e+00
13 1 -1.406427e-04 1.690858e-05 3.000300e+00
14 1 5.007971e-01 4.991300e-01 3.000488e+00
15 1 5.001148e-01 -7.481030e-04 3.500241e+00
16 1 6.487495e-05 4.998142e-01 3.499279e+00
17 1 6.658655e-04 8.368036e-04 3.999694e+00
18 1 5.002729e-01 4.996093e-01 4.000888e+00
19 1 5.001878e-01 5.678266e-04 4.499633e+00
20 1 -7.878390e-04 5.003660e-01 4.499810e+00
21 1 -5.994834e-04 6.556274e-05 4.999440e+00
22 1 4.994206e-01 4.997026e-01 4.999228e+00
23 1 4.996876e-01 -7.882688e-04 5.500560e+00
24 1 -2.138534e-04 5.003535e-01 5.500190e+00
25 1 9.740652e-05 1.000845e+00 5.329801e-04
26 1 5.004989e-01 1.499548e+00 -5.317086e-04
27 1 4.991652e-01 9.998311e-01 5.004450e-01
28 1 -2.304973e-04 1.499289e+00 5.004651e-01
29 1 -5.979909e-05 1.000243e+00 1.000728e+00
30 1 4.996017e-01 1.500648e+00 1.000455e+00
31 1 4.999113e-01 1.000509e+00 1.499469e+00
32 1 3.438482e-04 1.499521e+00 1.500096e+00
33 1 -5.019251e-04 1.000611e+00 2.000053e+00
34 1 5.006644e-01 1.500190e+00 1.999183e+00
35 1 5.006394e-01 1.000441e+00 2.500709e+00
36 1 -8.265065e-04 1.500710e+00 2.500370e+00
37 1 -7.229164e-04 1.000066e+00 2.999307e+00
38 1 4.994880e-01 1.499702e+00 2.999255e+00
39 1 5.009072e-01 1.000882e+00 3.500865e+00
40 1 7.683552e-04 1.499115e+00 3.500105e+00
41 1 -8.390463e-04 1.000890e+00 4.000489e+00
42 1 5.000754e-01 1.500807e+00 3.999365e+00
43 1 5.007633e-01 9.999634e-01 4.500640e+00
44 1 1.476102e-04 1.500870e+00 4.500408e+00
45 1 -8.689279e-04 9.998879e-01 4.999267e+00
46 1 4.991517e-01 1.499068e+00 4.999259e+00
47 1 4.999828e-01 9.996910e-01 5.499497e+00
48 1 -1.355686e-04 1.500149e+00 5.500263e+00
49 1 8.401252e-04 1.999721e+00 -9.240877e-04
50 1 4.996223e-01 2.499735e+00 -4.096581e-05
51 1 4.992433e-01 1.999276e+00 4.999596e-01
52 1 -8.199914e-04 2.499903e+00 4.997180e-01
53 1 -2.853332e-04 2.000754e+00 1.000781e+00
54 1 5.008880e-01 2.500000e+00 1.000002e+00
55 1 4.997851e-01 1.999580e+00 1.499652e+00
56 1 -4.033703e-04 2.500488e+00 1.500435e+00
57 1 -7.389204e-04 2.000080e+00 2.000317e+00
58 1 4.991239e-01 2.499885e+00 2.000163e+00
59 1 5.005027e-01 1.999534e+00 2.500061e+00
60 1 7.451035e-04 2.499234e+00 2.499908e+00
61 1 4.827375e-04 1.999977e+00 3.000982e+00
62 1 5.000898e-01 2.500339e+00 3.000020e+00
63 1 5.003023e-01 1.999571e+00 3.500013e+00
64 1 -7.142063e-04 2.499381e+00 3.499133e+00
65 1 6.499317e-04 2.000096e+00 4.000862e+00
66 1 5.009630e-01 2.500395e+00 3.999642e+00
67 1 5.005469e-01 1.999127e+00 4.499861e+00
68 1 -4.774137e-04 2.500376e+00 4.500386e+00
69 1 -2.050618e-04 1.999103e+00 4.999994e+00
70 1 4.994310e-01 2.500952e+00 5.000494e+00
71 1 5.009318e-01 2.000105e+00 5.499317e+00
72 1 7.492379e-05 2.500342e+00 5.500860e+00
73 1 1.916695e-04 3.000192e+00 4.768819e-05
74 1 4.991444e-01 3.500170e+00 -6.325082e-04
75 1 5.002655e-01 3.000719e+00 4.994207e-01
76 1 6.846326e-04 3.500818e+00 5.009380e-01
77 1 1.569042e-04 3.000322e+00 1.000267e+00
78 1 5.005488e-01 3.499961e+00 1.000033e+00
79 1 5.001117e-01 3.000007e+00 1.499316e+00
80 1 4.355334e-04 3.500052e+00 1.499565e+00
81 1 -4.061686e-04 2.999902e+00 2.000015e+00
82 1 4.991251e-01 3.500839e+00 1.999656e+00
83 1 4.994082e-01 2.999110e+00 2.500620e+00
84 1 4.252227e-06 3.500780e+00 2.500952e+00
85 1 -8.426398e-04 3.000487e+00 2.999154e+00
86 1 4.990769e-01 3.499084e+00 2.999292e+00
87 1 5.007739e-01 3.000020e+00 3.500817e+00
88 1 -4.523509e-04 3.499733e+00 3.500923e+00
89 1 7.430789e-04 3.000040e+00 3.999955e+00
90 1 5.002054e-01 3.499257e+00 4.000670e+00
91 1 4.994714e-01 2.999500e+00 4.499679e+00
92 1 2.141420e-04 3.500521e+00 4.499307e+00
93 1 -6.597874e-04 3.000584e+00 4.999825e+00
94 1 4.997723e-01 3.499169e+00 5.000370e+00
95 1 5.001899e-01 3.000025e+00 5.500702e+00
96 1 -3.752357e-04 3.499221e+00 5.499883e+00
97 1 7.187910e-05 3.999485e+00 4.234213e-04
98 1 4.995229e-01 4.499250e+00 9.331076e-04
99 1 5.006101e-01 4.000652e+00 5.006826e-01
100 1 5.368839e-04 4.500471e+00 4.990672e-01
101 1 2.445772e-04 3.999218e+00 1.000681e+00
102 1 5.005235e-01 4.500363e+00 1.000902e+00
103 1 4.991642e-01 3.999623e+00 1.500811e+00
104 1 2.478580e-04 4.500172e+00 1.500879e+00
105 1 2.295436e-04 4.000060e+00 1.999082e+00
106 1 4.995376e-01 4.500728e+00 1.999777e+00
107 1 5.004046e-01 3.999496e+00 2.499588e+00
108 1 -4.816861e-04 4.500173e+00 2.500857e+00
109 1 5.008731e-04 4.000956e+00 2.999526e+00
110 1 5.007350e-01 4.500825e+00 2.999950e+00
111 1 4.991087e-01 3.999151e+00 3.499203e+00
112 1 -5.755686e-05 4.499224e+00 3.500390e+00
113 1 -7.733668e-04 3.999765e+00 3.999134e+00
114 1 5.000801e-01 4.499580e+00 4.000030e+00
115 1 4.992028e-01 3.999723e+00 4.499288e+00
116 1 -6.024233e-04 4.500971e+00 4.499412e+00
117 1 -8.362144e-04 4.000106e+00 4.999464e+00
118 1 4.996343e-01 4.499545e+00 4.999907e+00
119 1 5.004689e-01 4.000350e+00 5.499387e+00
120 1 6.643052e-05 4.500801e+00 5.499642e+00
121 1 5.666290e-05 4.999194e+00 6.015275e-04
122 1 4.991935e-01 5.500871e+00 2.465847e-04
123 1 4.999018e-01 4.999698e+00 5.000270e-01
124 1 -5.197252e-04 5.499467e+00 5.008745e-01
125 1 8.358995e-04 5.000302e+00 1.000258e+00
126 1 5.006737e-01 5.499729e+00 1.000011e+00
127 1 5.004163e-01 5.000160e+00 1.499449e+00
128 1 3.652634e-05 5.499419e+00 1.500366e+00
129 1 5.894322e-04 4.999262e+00 2.000862e+00
130 1 4.999379e-01 5.500263e+00 1.999598e+00
131 1 5.004616e-01 5.000761e+00 2.500889e+00
132 1 8.577001e-04 5.500952e+00 2.499619e+00
133 1 -6.595267e-04 4.999159e+00 3.000262e+00
134 1 5.000213e-01 5.500642e+00 2.999698e+00
135 1 4.991785e-01 4.999995e+00 3.499485e+00
136 1 9.010922e-05 5.500117e+00 3.499226e+00
137 1 -2.734864e-04 5.000536e+00 4.000859e+00
138 1 4.998173e-01 5.500197e+00 4.000270e+00
139 1 5.001345e-01 4.999996e+00 4.499879e+00
140 1 3.472529e-05 5.500112e+00 4.500261e+00
141 1 7.654478e-04 5.000565e+00 5.000366e+00
142 1 4.995335e-01 5.499661e+00 5.000371e+00
143 1 4.997211e-01 5.000925e+00 5.499105e+00
144 1 9.553457e-04 5.499094e+00 5.500565e+00
145 1 1.000322e+00 3.196646e-04 -8.635852e-04
146 1 1.500507e+00 5.002787e-01 -7.518397e-04
147 1 1.499530e+00 6.178476e-04 5.004570e-01
148 1 1.000115e+00 4.999802e-01 5.003996e-01
149 1 9.999782e-01 -4.628157e-04 9.996307e-01
150 1 1.500696e+00 4.993872e-01 9.997939e-01
151 1 1.500517e+00 9.124662e-04 1.499926e+00
152 1 9.990884e-01 4.999292e-01 1.500018e+00
153 1 1.000496e+00 2.287914e-04 2.000642e+00
154 1 1.500205e+00 5.005704e-01 2.000296e+00
155 1 1.499617e+00 3.586127e-05 2.499530e+00
156 1 1.000256e+00 4.998800e-01 2.499474e+00
157 1 1.000722e+00 -1.838243e-04 2.999642e+00
158 1 1.499909e+00 4.999440e-01 2.999982e+00
159 1 1.500745e+00 -9.446959e-04 3.499497e+00
160 1 9.999674e-01 5.004380e-01 3.499339e+00
161 1 9.991182e-01 2.786275e-04 4.000293e+00
162 1 1.499376e+00 4.998999e-01 4.000610e+00
163 1 1.499385e+00 1.834731e-04 4.499512e+00
164 1 1.000675e+00 4.994885e-01 4.500374e+00
165 1 9.990713e-01 7.809749e-04 4.999954e+00
166 1 1.500492e+00 4.993421e-01 4.999887e+00
167 1 1.499205e+00 5.255050e-04 5.500488e+00
168 1 9.992226e-01 4.997204e-01 5.499346e+00
169 1 1.000647e+00 9.999549e-01 5.979778e-04
170 1 1.499526e+00 1.500045e+00 1.016593e-04
171 1 1.500562e+00 1.000823e+00 5.006032e-01
172 1 1.000614e+00 1.500690e+00 4.993505e-01
173 1 9.993375e-01 1.000305e+00 9.993800e-01
174 1 1.499355e+00 1.499145e+00 9.999990e-01
175 1 1.499732e+00 1.000690e+00 1.499253e+00
176 1 1.000879e+00 1.499215e+00 1.499725e+00
177 1 1.000770e+00 9.995077e-01 1.999237e+00
178 1 1.500986e+00 1.500715e+00 1.999480e+00
179 1 1.500045e+00 9.996883e-01 2.499257e+00
180 1 1.000124e+00 1.499514e+00 2.500577e+00
181 1 1.000526e+00 1.000338e+00 2.999645e+00
182 1 1.500233e+00 1.499463e+00 2.999071e+00
183 1 1.500211e+00 9.991418e-01 3.500067e+00
184 1 9.995869e-01 1.499419e+00 3.500957e+00
185 1 9.993702e-01 9.991178e-01 4.000498e+00
186 1 1.500494e+00 1.499283e+00 3.999177e+00
187 1 1.499983e+00 1.000325e+00 4.499648e+00
188 1 9.995729e-01 1.500699e+00 4.499165e+00
189 1 9.991609e-01 9.998924e-01 4.999471e+00
190 1 1.499150e+00 1.499370e+00 4.999538e+00
191 1 1.500646e+00 1.000204e+00 5.499677e+00
192 1 1.000276e+00 1.500569e+00 5.499120e+00
193 1 1.000145e+00 2.000820e+00 6.225303e-04
194 1 1.499981e+00 2.499297e+00 6.501546e-04
195 1 1.499814e+00 1.999745e+00 4.995643e-01
196 1 9.994414e-01 2.499364e+00 4.993334e-01
197 1 9.993261e-01 1.999993e+00 1.000381e+00
198 1 1.499972e+00 2.499162e+00 9.993908e-01
199 1 1.500935e+00 1.999772e+00 1.500449e+00
200 1 9.991004e-01 2.500803e+00 1.500783e+00
201 1 9.994888e-01 1.999718e+00 1.999784e+00
202 1 1.499681e+00 2.499567e+00 2.000586e+00
203 1 1.500617e+00 2.000813e+00 2.499067e+00
204 1 9.992482e-01 2.500697e+00 2.499641e+00
205 1 1.000145e+00 2.000703e+00 3.000596e+00
206 1 1.499554e+00 2.500525e+00 2.999312e+00
207 1 1.499751e+00 1.999256e+00 3.500070e+00
208 1 9.999971e-01 2.500168e+00 3.500978e+00
209 1 9.996451e-01 1.999195e+00 4.000154e+00
210 1 1.500732e+00 2.500302e+00 3.999822e+00
211 1 1.500809e+00 1.999175e+00 4.500658e+00
212 1 1.000875e+00 2.499526e+00 4.500919e+00
213 1 1.000984e+00 2.000763e+00 5.000729e+00
214 1 1.500981e+00 2.499407e+00 4.999080e+00
215 1 1.500388e+00 1.999696e+00 5.499583e+00
216 1 9.992258e-01 2.500487e+00 5.499958e+00
217 1 9.993321e-01 3.000444e+00 6.632759e-04
218 1 1.499731e+00 3.499764e+00 -6.667346e-05
219 1 1.500660e+00 3.000531e+00 4.998481e-01
220 1 1.000606e+00 3.500629e+00 5.003901e-01
221 1 1.000866e+00 2.999858e+00 9.997626e-01
222 1 1.500696e+00 3.499282e+00 9.998510e-01
223 1 1.499908e+00 3.000785e+00 1.500148e+00
224 1 9.993520e-01 3.499900e+00 1.500420e+00
225 1 9.996076e-01 3.000815e+00 1.999524e+00
226 1 1.499448e+00 3.500376e+00 2.000047e+00
227 1 1.500559e+00 2.999140e+00 2.499333e+00
228 1 1.000346e+00 3.499752e+00 2.500222e+00
229 1 1.000805e+00 3.000629e+00 2.999248e+00
230 1 1.499925e+00 3.499075e+00 3.000879e+00
231 1 1.500325e+00 3.000594e+00 3.500302e+00
232 1 1.000402e+00 3.499528e+00 3.499091e+00
233 1 9.996263e-01 2.999092e+00 3.999239e+00
234 1 1.499076e+00 3.499364e+00 4.000373e+00
235 1 1.500491e+00 3.000852e+00 4.500983e+00
236 1 9.994620e-01 3.500246e+00 4.499177e+00
237 1 1.000953e+00 2.999479e+00 5.000205e+00
238 1 1.500573e+00 3.500339e+00 4.999086e+00
239 1 1.499584e+00 2.999200e+00 5.499102e+00
240 1 1.000649e+00 3.500121e+00 5.500671e+00
241 1 1.000136e+00 3.999313e+00 3.378097e-04
242 1 1.500440e+00 4.500676e+00 -7.605559e-04
243 1 1.500114e+00 4.000966e+00 5.001159e-01
244 1 9.994282e-01 4.500895e+00 5.002485e-01
245 1 9.999414e-01 3.999676e+00 1.000946e+00
246 1 1.500452e+00 4.500133e+00 9.998316e-01
247 1 1.500260e+00 4.000598e+00 1.500204e+00
248 1 1.000263e+00 4.500879e+00 1.500843e+00
249 1 9.991877e-01 4.000176e+00 1.999782e+00
250 1 1.500545e+00 4.499735e+00 1.999785e+00
251 1 1.499887e+00 4.000729e+00 2.499662e+00
252 1 1.000203e+00 4.500756e+00 2.499870e+00
253 1 1.000579e+00 4.000958e+00 2.999871e+00
254 1 1.499210e+00 4.499685e+00 3.000695e+00
255 1 1.500151e+00 3.999249e+00 3.500282e+00
256 1 9.997859e-01 4.500068e+00 3.500351e+00
257 1 9.999899e-01 4.000986e+00 4.000402e+00
258 1 1.499243e+00 4.500194e+00 3.999376e+00
259 1 1.500134e+00 3.999341e+00 4.500634e+00
260 1 1.000356e+00 4.500753e+00 4.499864e+00
261 1 9.990791e-01 3.999284e+00 5.000686e+00
262 1 1.500916e+00 4.500285e+00 5.000503e+00
263 1 1.500276e+00 4.000629e+00 5.500477e+00
264 1 9.997040e-01 4.500632e+00 5.500016e+00
265 1 1.000601e+00 5.000356e+00 2.553706e-04
266 1 1.500491e+00 5.500667e+00 -9.034169e-04
267 1 1.500636e+00 5.000667e+00 5.007474e-01
268 1 9.994719e-01 5.500783e+00 5.003971e-01
269 1 9.997990e-01 5.000049e+00 1.000287e+00
270 1 1.499608e+00 5.499251e+00 9.996146e-01
271 1 1.499969e+00 5.000059e+00 1.499871e+00
272 1 9.996877e-01 5.500212e+00 1.500495e+00
273 1 9.990930e-01 4.999391e+00 1.999710e+00
274 1 1.499615e+00 5.499963e+00 2.000829e+00
275 1 1.499839e+00 5.000536e+00 2.499809e+00
276 1 9.994375e-01 5.499765e+00 2.500318e+00
277 1 1.000322e+00 4.999720e+00 2.999843e+00
278 1 1.500602e+00 5.499215e+00 3.000458e+00
279 1 1.500122e+00 4.999388e+00 3.499456e+00
280 1 1.000770e+00 5.500092e+00 3.499884e+00
281 1 9.999754e-01 4.999297e+00 4.000292e+00
282 1 1.500310e+00 5.500855e+00 4.000025e+00
283 1 1.500318e+00 5.000715e+00 4.500017e+00
284 1 9.999018e-01 5.499773e+00 4.500342e+00
285 1 9.994884e-01 5.000272e+00 5.000304e+00
286 1 1.500681e+00 5.500370e+00 4.999499e+00
287 1 1.500219e+00 4.999198e+00 5.499965e+00
288 1 1.000424e+00 5.499198e+00 5.500847e+00
289 1 2.000219e+00 1.587754e-04 4.861754e-04
290 1 2.499544e+00 5.003165e-01 7.528416e-04
291 1 2.499473e+00 4.882065e-04 5.006186e-01
292 1 1.999418e+00 4.996969e-01 4.999917e-01
293 1 1.999806e+00 9.113348e-04 1.000263e+00
294 1 2.499627e+00 4.990875e-01 1.000149e+00
295 1 2.500437e+00 8.991496e-04 1.500599e+00
296 1 2.000839e+00 4.993419e-01 1.499537e+00
297 1 2.000521e+00 5.659839e-04 1.999625e+00
298 1 2.499380e+00 4.993974e-01 2.000405e+00
299 1 2.499792e+00 4.648863e-04 2.499587e+00
300 1 2.000128e+00 5.008842e-01 2.500482e+00
301 1 2.000824e+00 -3.757395e-04 3.000108e+00
302 1 2.499671e+00 5.003486e-01 3.000114e+00
303 1 2.500773e+00 -9.371131e-04 3.499217e+00
304 1 2.000842e+00 5.002414e-01 3.500259e+00
305 1 1.999784e+00 8.133967e-04 3.999140e+00
306 1 2.500142e+00 4.996577e-01 3.999720e+00
307 1 2.500565e+00 -7.849464e-04 4.500279e+00
308 1 1.999867e+00 4.992645e-01 4.499357e+00
309 1 1.999376e+00 6.988051e-04 5.000662e+00
310 1 2.500403e+00 5.005537e-01 4.999518e+00
311 1 2.500261e+00 1.691010e-05 5.500326e+00
312 1 1.999594e+00 5.004532e-01 5.500311e+00
313 1 1.999432e+00 1.000236e+00 5.822963e-04
314 1 2.499154e+00 1.500309e+00 -5.505679e-04
315 1 2.499570e+00 9.992456e-01 5.006898e-01
316 1 2.000631e+00 1.499563e+00 4.998921e-01
317 1 1.999306e+00 1.000483e+00 1.000191e+00
318 1 2.500171e+00 1.499648e+00 9.994975e-01
319 1 2.499880e+00 9.999197e-01 1.499632e+00
320 1 1.999075e+00 1.499271e+00 1.500284e+00
321 1 1.999933e+00 9.994125e-01 2.000696e+00
322 1 2.499359e+00 1.499789e+00 1.999964e+00
323 1 2.499760e+00 9.997191e-01 2.500012e+00
324 1 2.000574e+00 1.499386e+00 2.499207e+00
325 1 2.000648e+00 9.991192e-01 3.000904e+00
326 1 2.499572e+00 1.500268e+00 2.999169e+00
327 1 2.500020e+00 1.000169e+00 3.500672e+00
328 1 2.000531e+00 1.500669e+00 3.500498e+00
329 1 2.000249e+00 9.998670e-01 4.000713e+00
330 1 2.500792e+00 1.499151e+00 3.999622e+00
331 1 2.499880e+00 1.000475e+00 4.499146e+00
332 1 2.000881e+00 1.500034e+00 4.500987e+00
333 1 1.999708e+00 9.992076e-01 5.000557e+00
334 1 2.500535e+00 1.500878e+00 5.000602e+00
335 1 2.500612e+00 9.991202e-01 5.499944e+00
336 1 1.999400e+00 1.500795e+00 5.500537e+00
337 1 2.000267e+00 1.999510e+00 1.458005e-04
338 1 2.499325e+00 2.499534e+00 8.553719e-05
339 1 2.500526e+00 2.000252e+00 4.990565e-01
340 1 1.999150e+00 2.500934e+00 4.991103e-01
341 1 2.000933e+00 2.000867e+00 9.996088e-01
342 1 2.499257e+00 2.500403e+00 1.000098e+00
343 1 2.500764e+00 1.999476e+00 1.500296e+00
344 1 1.999660e+00 2.499572e+00 1.499470e+00
345 1 2.000530e+00 2.000668e+00 2.000229e+00
346 1 2.500107e+00 2.499589e+00 2.000447e+00
347 1 2.499773e+00 2.000939e+00 2.500003e+00
348 1 1.999510e+00 2.499487e+00 2.500687e+00
349 1 1.999949e+00 1.999491e+00 2.999227e+00
350 1 2.499475e+00 2.499688e+00 2.999835e+00
351 1 2.499437e+00 1.999804e+00 3.499110e+00
352 1 1.999208e+00 2.500094e+00 3.500497e+00
353 1 2.000236e+00 2.000793e+00 4.000583e+00
354 1 2.499151e+00 2.499419e+00 3.999311e+00
355 1 2.500819e+00 2.000883e+00 4.500343e+00
356 1 2.000490e+00 2.500516e+00 4.499276e+00
357 1 2.000627e+00 2.000111e+00 5.000516e+00
358 1 2.500946e+00 2.499529e+00 4.999817e+00
359 1 2.500471e+00 2.000633e+00 5.500793e+00
360 1 2.000001e+00 2.499725e+00 5.499487e+00
361 1 2.000938e+00 2.999900e+00 -5.771388e-05
362 1 2.500298e+00 3.499594e+00 -4.968130e-04
363 1 2.499290e+00 3.000212e+00 4.994233e-01
364 1 1.999144e+00 3.500802e+00 5.007488e-01
365 1 2.000775e+00 3.000742e+00 1.000279e+00
366 1 2.499658e+00 3.499903e+00 9.994503e-01
367 1 2.499398e+00 2.999144e+00 1.499260e+00
368 1 2.000509e+00 3.500546e+00 1.499616e+00
369 1 1.999245e+00 3.000067e+00 2.000478e+00
370 1 2.499815e+00 3.500140e+00 1.999678e+00
371 1 2.500282e+00 3.000738e+00 2.500530e+00
372 1 1.999572e+00 3.499113e+00 2.499383e+00
373 1 1.999724e+00 2.999293e+00 3.000880e+00
374 1 2.500134e+00 3.500743e+00 3.000603e+00
375 1 2.500417e+00 2.999401e+00 3.499227e+00
376 1 2.000464e+00 3.500124e+00 3.499952e+00
377 1 2.000405e+00 2.999811e+00 4.000076e+00
378 1 2.500369e+00 3.499190e+00 3.999204e+00
379 1 2.500302e+00 3.000445e+00 4.499408e+00
380 1 2.000904e+00 3.499847e+00 4.499256e+00
381 1 1.999562e+00 3.000677e+00 4.999874e+00
382 1 2.500507e+00 3.499977e+00 4.999337e+00
383 1 2.499101e+00 2.999376e+00 5.500340e+00
384 1 1.999269e+00 3.499680e+00 5.499549e+00
385 1 1.999207e+00 3.999157e+00 3.766428e-04
386 1 2.500943e+00 4.499132e+00 7.130437e-04
387 1 2.500170e+00 3.999825e+00 4.996664e-01
388 1 1.999615e+00 4.499800e+00 5.004799e-01
389 1 2.000371e+00 4.000013e+00 9.995526e-01
390 1 2.500402e+00 4.500019e+00 1.000579e+00
391 1 2.500071e+00 4.000916e+00 1.500931e+00
392 1 1.999885e+00 4.500826e+00 1.499581e+00
393 1 1.999340e+00 3.999999e+00 1.999760e+00
394 1 2.500624e+00 4.499437e+00 2.000498e+00
395 1 2.500074e+00 4.000413e+00 2.499555e+00
396 1 1.999726e+00 4.499591e+00 2.499054e+00
397 1 1.999909e+00 3.999463e+00 2.999629e+00
398 1 2.499946e+00 4.500690e+00 3.000452e+00
399 1 2.500487e+00 4.000310e+00 3.500332e+00
400 1 1.999690e+00 4.500195e+00 3.499739e+00
401 1 1.999987e+00 4.000377e+00 3.999814e+00
402 1 2.499703e+00 4.500411e+00 3.999114e+00
403 1 2.500075e+00 4.000120e+00 4.499982e+00
404 1 2.000012e+00 4.500727e+00 4.499522e+00
405 1 1.999335e+00 3.999584e+00 4.999278e+00
406 1 2.499104e+00 4.499676e+00 5.000081e+00
407 1 2.499830e+00 3.999167e+00 5.500494e+00
408 1 2.000134e+00 4.499123e+00 5.500843e+00
409 1 2.000459e+00 5.000728e+00 -5.112757e-04
410 1 2.500050e+00 5.499743e+00 8.339312e-04
411 1 2.499962e+00 5.000922e+00 5.006373e-01
412 1 2.000465e+00 5.499200e+00 5.001512e-01
413 1 1.999183e+00 4.999333e+00 9.993926e-01
414 1 2.500371e+00 5.500625e+00 1.000663e+00
415 1 2.499950e+00 4.999071e+00 1.499915e+00
416 1 2.000767e+00 5.499214e+00 1.500161e+00
417 1 1.999976e+00 5.000583e+00 2.000940e+00
418 1 2.499601e+00 5.500271e+00 1.999941e+00
419 1 2.499536e+00 5.000820e+00 2.500145e+00
420 1 2.000252e+00 5.500819e+00 2.499868e+00
421 1 1.999775e+00 4.999924e+00 2.999315e+00
422 1 2.499656e+00 5.500335e+00 2.999085e+00
423 1 2.500707e+00 4.999760e+00 3.500355e+00
424 1 2.000126e+00 5.500262e+00 3.500690e+00
425 1 1.999667e+00 5.000366e+00 3.999362e+00
426 1 2.500516e+00 5.499520e+00 4.000402e+00
427 1 2.499338e+00 4.999832e+00 4.499285e+00
428 1 1.999765e+00 5.500951e+00 4.499717e+00
429 1 1.999078e+00 4.999391e+00 4.999503e+00
430 1 2.499141e+00 5.500517e+00 5.000867e+00
431 1 2.500691e+00 5.000873e+00 5.499506e+00
432 1 2.000334e+00 5.499665e+00 5.499957e+00
433 1 2.999465e+00 -5.121388e-04 8.598063e-04
434 1 3.499424e+00 5.006045e-01 2.032367e-05
435 1 3.499807e+00 5.945184e-04 4.992749e-01
436 1 3.000140e+00 4.993071e-01 4.998768e-01
437 1 3.000660e+00 -2.701425e-04 1.000295e+00
438 1 3.500282e+00 4.996285e-01 9.999280e-01
439 1 3.499639e+00 8.382122e-05 1.500548e+00
440 1 2.999842e+00 5.001413e-01 1.499404e+00
441 1 3.000622e+00 -5.151477e-04 2.000606e+00
442 1 3.500299e+00 5.000700e-01 1.999932e+00
443 1 3.500702e+00 -4.559932e-04 2.500120e+00
444 1 2.999714e+00 5.001199e-01 2.499703e+00
445 1 3.000014e+00 6.327225e-04 3.000818e+00
446 1 3.499699e+00 4.991421e-01 2.999870e+00
447 1 3.500392e+00 -6.098865e-04 3.499067e+00
448 1 3.000724e+00 5.008035e-01 3.499195e+00
449 1 3.000083e+00 5.381848e-04 4.000725e+00
450 1 3.499154e+00 4.996940e-01 3.999517e+00
451 1 3.500678e+00 1.245721e-05 4.500959e+00
452 1 3.000485e+00 4.994160e-01 4.500568e+00
453 1 3.000472e+00 -1.385262e-05 4.999996e+00
454 1 3.500424e+00 4.994111e-01 5.000242e+00
455 1 3.499560e+00 5.272660e-04 5.499121e+00
456 1 2.999762e+00 4.996492e-01 5.499574e+00
457 1 3.000691e+00 9.998396e-01 3.045150e-04
458 1 3.500129e+00 1.499856e+00 6.311511e-04
459 1 3.499730e+00 9.993826e-01 5.000878e-01
460 1 2.999722e+00 1.500205e+00 5.003547e-01
461 1 2.999906e+00 9.993576e-01 1.000693e+00
462 1 3.500569e+00 1.500392e+00 9.996582e-01
463 1 3.500435e+00 9.998619e-01 1.499309e+00
464 1 3.000339e+00 1.499963e+00 1.500192e+00
465 1 2.999901e+00 1.000893e+00 1.999788e+00
466 1 3.499452e+00 1.500578e+00 2.000248e+00
467 1 3.500014e+00 1.000037e+00 2.500964e+00
468 1 3.000868e+00 1.500657e+00 2.499247e+00
469 1 2.999074e+00 9.992061e-01 3.000064e+00
470 1 3.500424e+00 1.500417e+00 2.999193e+00
471 1 3.500589e+00 1.000954e+00 3.499538e+00
472 1 2.999629e+00 1.500841e+00 3.500452e+00
473 1 2.999371e+00 1.000619e+00 3.999201e+00
474 1 3.500901e+00 1.499803e+00 4.000536e+00
475 1 3.499657e+00 9.994892e-01 4.500811e+00
476 1 2.999522e+00 1.500026e+00 4.499880e+00
477 1 3.000147e+00 9.998163e-01 5.000920e+00
478 1 3.500826e+00 1.500976e+00 5.000919e+00
479 1 3.499250e+00 1.000924e+00 5.499681e+00
480 1 3.000729e+00 1.500097e+00 5.500759e+00
481 1 3.000551e+00 1.999403e+00 6.131148e-04
482 1 3.500422e+00 2.499179e+00 -5.526174e-04
483 1 3.499958e+00 1.999506e+00 5.003766e-01
484 1 3.000320e+00 2.500730e+00 4.998890e-01
485 1 3.000501e+00 1.999883e+00 1.000000e+00
486 1 3.499562e+00 2.499182e+00 1.000315e+00
487 1 3.499565e+00 1.999508e+00 1.500439e+00
488 1 3.000950e+00 2.500510e+00 1.500373e+00
489 1 3.000551e+00 1.999348e+00 1.999376e+00
490 1 3.500457e+00 2.499357e+00 1.999967e+00
491 1 3.499810e+00 1.999698e+00 2.499270e+00
492 1 3.000032e+00 2.500018e+00 2.499276e+00
493 1 3.000603e+00 1.999210e+00 2.999368e+00
494 1 3.500822e+00 2.500102e+00 2.999580e+00
495 1 3.499315e+00 1.999507e+00 3.499971e+00
496 1 2.999994e+00 2.499605e+00 3.500139e+00
497 1 3.000909e+00 1.999553e+00 4.000542e+00
498 1 3.500380e+00 2.500480e+00 3.999847e+00
499 1 3.499518e+00 1.999093e+00 4.499131e+00
500 1 3.000025e+00 2.499175e+00 4.499967e+00
501 1 2.999891e+00 1.999866e+00 4.999516e+00
502 1 3.500337e+00 2.500203e+00 5.000199e+00
503 1 3.500788e+00 2.000279e+00 5.500432e+00
504 1 3.000674e+00 2.500391e+00 5.500152e+00
505 1 2.999516e+00 3.000555e+00 -7.107721e-04
506 1 3.500821e+00 3.499257e+00 1.809870e-04
507 1 3.500468e+00 2.999569e+00 5.002593e-01
508 1 3.000539e+00 3.499105e+00 4.994899e-01
509 1 2.999306e+00 3.000635e+00 1.000432e+00
510 1 3.499310e+00 3.500694e+00 9.998312e-01
511 1 3.500806e+00 2.999326e+00 1.499391e+00
512 1 3.000421e+00 3.499463e+00 1.500958e+00
513 1 3.000183e+00 2.999671e+00 1.999117e+00
514 1 3.499473e+00 3.499093e+00 1.999522e+00
515 1 3.500454e+00 3.000395e+00 2.499625e+00
516 1 3.000840e+00 3.500876e+00 2.499527e+00
517 1 3.000050e+00 2.999522e+00 2.999751e+00
518 1 3.500927e+00 3.499426e+00 2.999794e+00
519 1 3.499174e+00 2.999144e+00 3.500745e+00
520 1 2.999241e+00 3.500427e+00 3.499160e+00
521 1 2.999763e+00 3.000168e+00 3.999349e+00
522 1 3.499307e+00 3.499379e+00 4.000859e+00
523 1 3.500899e+00 2.999477e+00 4.500381e+00
524 1 2.999499e+00 3.499276e+00 4.499546e+00
525 1 3.000479e+00 2.999755e+00 5.000823e+00
526 1 3.499208e+00 3.500855e+00 5.000860e+00
527 1 3.499649e+00 3.000694e+00 5.499173e+00
528 1 2.999646e+00 3.499664e+00 5.500030e+00
529 1 3.000574e+00 3.999242e+00 6.169679e-04
530 1 3.499384e+00 4.499713e+00 4.607311e-04
531 1 3.499582e+00 3.999329e+00 4.991544e-01
532 1 2.999512e+00 4.500651e+00 4.994222e-01
533 1 2.999274e+00 3.999127e+00 9.995860e-01
534 1 3.499659e+00 4.499407e+00 1.000756e+00
535 1 3.499483e+00 3.999571e+00 1.499688e+00
536 1 2.999149e+00 4.499541e+00 1.499725e+00
537 1 2.999905e+00 3.999248e+00 1.999391e+00
538 1 3.500914e+00 4.499442e+00 1.999938e+00
539 1 3.499519e+00 4.000166e+00 2.499461e+00
540 1 3.000447e+00 4.500820e+00 2.500315e+00
541 1 3.000533e+00 3.999115e+00 3.000203e+00
542 1 3.500722e+00 4.500512e+00 2.999568e+00
543 1 3.499712e+00 4.000434e+00 3.500314e+00
544 1 2.999763e+00 4.500092e+00 3.500844e+00
545 1 3.000011e+00 4.000957e+00 4.000777e+00
546 1 3.500211e+00 4.499134e+00 4.000321e+00
547 1 3.500151e+00 4.000812e+00 4.499560e+00
548 1 2.999148e+00 4.499485e+00 4.499074e+00
549 1 2.999192e+00 4.000739e+00 5.000774e+00
550 1 3.500948e+00 4.499858e+00 4.999346e+00
551 1 3.500646e+00 3.999988e+00 5.499926e+00
552 1 2.999842e+00 4.500902e+00 5.500858e+00
553 1 3.000470e+00 4.999334e+00 6.158582e-05
554 1 3.500497e+00 5.500986e+00 -2.533532e-04
555 1 3.500099e+00 5.000206e+00 5.006354e-01
556 1 3.000045e+00 5.499751e+00 5.009517e-01
557 1 3.000291e+00 4.999695e+00 1.000462e+00
558 1 3.499489e+00 5.500353e+00 9.994476e-01
559 1 3.500916e+00 4.999364e+00 1.499982e+00
560 1 3.000034e+00 5.499938e+00 1.500298e+00
561 1 3.000553e+00 4.999659e+00 2.000680e+00
562 1 3.500052e+00 5.499509e+00 2.000603e+00
563 1 3.499510e+00 5.000242e+00 2.500213e+00
564 1 3.000345e+00 5.500528e+00 2.499598e+00
565 1 2.999890e+00 4.999360e+00 2.999726e+00
566 1 3.499615e+00 5.500105e+00 3.000246e+00
567 1 3.499719e+00 5.000197e+00 3.499729e+00
568 1 3.000897e+00 5.500384e+00 3.500905e+00
569 1 2.999459e+00 4.999628e+00 3.999214e+00
570 1 3.499354e+00 5.500479e+00 4.000046e+00
571 1 3.499723e+00 5.000683e+00 4.499689e+00
572 1 3.000724e+00 5.500249e+00 4.499261e+00
573 1 2.999480e+00 4.999692e+00 5.000341e+00
574 1 3.499083e+00 5.499403e+00 5.000568e+00
575 1 3.500158e+00 5.000145e+00 5.499191e+00
576 1 3.000131e+00 5.500193e+00 5.499974e+00
577 1 4.000099e+00 2.596274e-04 2.680359e-04
578 1 4.500484e+00 4.998979e-01 -3.334872e-04
579 1 4.500187e+00 3.126358e-04 5.009860e-01
580 1 3.999708e+00 5.008087e-01 5.008375e-01
581 1 3.999743e+00 3.354828e-04 9.998702e-01
582 1 4.499725e+00 4.994080e-01 9.991027e-01
583 1 4.499481e+00 2.917177e-04 1.499687e+00
584 1 4.000568e+00 4.996524e-01 1.500735e+00
585 1 4.000453e+00 8.365246e-05 1.999647e+00
586 1 4.500855e+00 4.992211e-01 1.999818e+00
587 1 4.500779e+00 -7.932387e-04 2.500245e+00
588 1 4.000237e+00 5.003103e-01 2.500430e+00
589 1 3.999571e+00 1.976289e-04 2.999397e+00
590 1 4.500831e+00 5.002732e-01 3.000585e+00
591 1 4.499707e+00 -6.492071e-04 3.500046e+00
592 1 4.000190e+00 4.994307e-01 3.499896e+00
593 1 3.999573e+00 9.902268e-05 4.000592e+00
594 1 4.499692e+00 4.997566e-01 4.000423e+00
595 1 4.499217e+00 4.100871e-04 4.499732e+00
596 1 4.000870e+00 5.009335e-01 4.499861e+00
597 1 4.000169e+00 -7.775509e-04 5.000722e+00
598 1 4.499980e+00 5.002979e-01 5.000435e+00
599 1 4.499092e+00 -2.842976e-04 5.500420e+00
600 1 4.000023e+00 4.997245e-01 5.500042e+00
601 1 3.999312e+00 9.990602e-01 6.432345e-04
602 1 4.499620e+00 1.500082e+00 -9.304412e-04
603 1 4.499276e+00 1.000558e+00 4.990844e-01
604 1 3.999543e+00 1.500688e+00 4.991106e-01
605 1 3.999480e+00 9.992601e-01 9.998971e-01
606 1 4.500659e+00 1.499150e+00 9.998593e-01
607 1 4.499077e+00 1.000333e+00 1.499376e+00
608 1 4.000914e+00 1.499126e+00 1.499251e+00
609 1 4.000590e+00 1.000921e+00 1.999425e+00
610 1 4.499693e+00 1.499221e+00 1.999876e+00
611 1 4.499633e+00 1.000161e+00 2.499671e+00
612 1 4.000389e+00 1.500909e+00 2.499183e+00
613 1 4.000803e+00 9.998633e-01 3.000489e+00
614 1 4.499930e+00 1.500708e+00 2.999090e+00
615 1 4.500090e+00 1.000011e+00 3.499862e+00
616 1 4.000795e+00 1.499103e+00 3.500536e+00
617 1 3.999401e+00 9.999774e-01 4.000308e+00
618 1 4.499199e+00 1.499189e+00 4.000073e+00
619 1 4.500286e+00 1.000059e+00 4.500899e+00
620 1 4.000971e+00 1.500575e+00 4.499546e+00
621 1 3.999797e+00 9.993427e-01 5.000762e+00
622 1 4.499778e+00 1.499493e+00 4.999861e+00
623 1 4.500958e+00 9.996608e-01 5.500144e+00
624 1 4.000276e+00 1.500699e+00 5.499731e+00
625 1 3.999482e+00 1.999948e+00 -3.834207e-04
626 1 4.500833e+00 2.500592e+00 8.704430e-04
627 1 4.500157e+00 1.999317e+00 5.009209e-01
628 1 4.000777e+00 2.499334e+00 5.002570e-01
629 1 3.999180e+00 1.999533e+00 1.000962e+00
630 1 4.500805e+00 2.499419e+00 1.000882e+00
631 1 4.500496e+00 1.999983e+00 1.499612e+00
632 1 4.000548e+00 2.500324e+00 1.499779e+00
633 1 3.999263e+00 1.999919e+00 1.999480e+00
634 1 4.499082e+00 2.500483e+00 1.999849e+00
635 1 4.499644e+00 2.000151e+00 2.500558e+00
636 1 4.000127e+00 2.500969e+00 2.499715e+00
637 1 4.000111e+00 1.999460e+00 2.999723e+00
638 1 4.499563e+00 2.499497e+00 2.999491e+00
639 1 4.500468e+00 1.999572e+00 3.499305e+00
640 1 4.000242e+00 2.500285e+00 3.499384e+00
641 1 4.000379e+00 2.000078e+00 4.000568e+00
642 1 4.500859e+00 2.499470e+00 4.000086e+00
643 1 4.499685e+00 2.000696e+00 4.499986e+00
644 1 4.000117e+00 2.500845e+00 4.499196e+00
645 1 4.000596e+00 1.999556e+00 5.000225e+00
646 1 4.500781e+00 2.500182e+00 4.999076e+00
647 1 4.500449e+00 1.999458e+00 5.500868e+00
648 1 3.999315e+00 2.500648e+00 5.500579e+00
649 1 3.999414e+00 3.000521e+00 -6.065988e-04
650 1 4.500303e+00 3.500225e+00 1.444950e-04
651 1 4.500606e+00 3.000798e+00 4.998560e-01
652 1 3.999750e+00 3.500181e+00 4.995119e-01
653 1 3.999114e+00 2.999294e+00 1.000599e+00
654 1 4.500320e+00 3.500400e+00 1.000026e+00
655 1 4.500502e+00 2.999946e+00 1.499551e+00
656 1 3.999132e+00 3.499998e+00 1.499759e+00
657 1 3.999590e+00 3.000319e+00 2.000750e+00
658 1 4.500386e+00 3.500699e+00 2.000006e+00
659 1 4.500753e+00 2.999736e+00 2.499430e+00
660 1 3.999372e+00 3.499599e+00 2.499807e+00
661 1 3.999948e+00 2.999650e+00 2.999207e+00
662 1 4.499332e+00 3.500015e+00 3.000556e+00
663 1 4.500377e+00 3.000557e+00 3.499915e+00