ITEM: TIMESTEP
0.000000e+00
ITEM: NUMBER OF ATOMS
864
ITEM: BOX BOUNDS pp pp pp
0.0 6.000000e+00
0.0 6.000000e+00
0.0 6.000000e+00
ITEM: ATOMS id type x y z
1 1 4.123678e-04 -3.755783e-04 9.190986e-05
2 1 5.002022e-01 4.997580e-01 5.296810e-04
3 1 4.995220e-01 -9.997056e-05 4.994205e-01
4 1 -4.558158e-04 4.995932e-01 4.996871e-01
5 1 5.831362e-04 -3.724147e-04 9.998469e-01
6 1 4.997222e-01 5.002571e-01 9.995511e-01
7 1 4.997811e-01 -6.826947e-05 1.499369e+00
8 1 5.312658e-04 4.994257e-01 1.500032e+00
9 1 -4.012505e-04 -5.088636e-04 1.999505e+00
10 1 4.997343e-01 4.996976e-01 2.000318e+00
11 1 4.996170e-01 5.439194e-04 2.500096e+00
12 1 4.574639e-04 5.006197e-01 2.500440e+00
13 1 2.166743e-04 2.131779e-04 3.000435e+00
14 1 5.004911e-01 4.999439e-01 3.000291e+00
15 1 5.005319e-01 2.213034e-04 3.500205e+00
16 1 -5.811216e-04 5.002323e-01 3.499900e+00
17 1 4.469641e-04 2.952877e-05 4.000214e+00
18 1 5.005473e-01 4.998906e-01 4.000479e+00
19 1 4.995905e-01 -3.378505e-04 4.499712e+00
20 1 -5.047867e-04 4.999198e-01 4.499382e+00
21 1 5.627876e-04 2.683866e-04 4.999422e+00
22 1 5.001813e-01 5.002259e-01 4.999948e+00
23 1 4.999226e-01 1.224310e-04 5.499546e+00
24 1 6.423327e-05 4.994711e-01 5.500317e+00
25 1 8.526356e-06 9.999292e-01 3.627802e-04
26 1 4.993807e-01 1.500420e+00 2.491020e-04
27 1 5.000213e-01 9.993720e-01 5.004749e-01
28 1 -2.718763e-04 1.499485e+00 5.000497e-01
29 1 3.513805e-04 9.999272e-01 1.000419e+00
30 1 5.003512e-01 1.500058e+00 1.000057e+00
31 1 5.002452e-01 9.996938e-01 1.499865e+00
32 1 3.313340e-04 1.500435e+00 1.499479e+00
33 1 4.173819e-05 1.000516e+00 2.000155e+00
34 1 4.999040e-01 1.499984e+00 2.000427e+00
35 1 5.002713e-01 1.000099e+00 2.500391e+00
36 1 3.804235e-04 1.499497e+00 2.499379e+00
37 1 -8.730477e-05 9.995752e-01 2.999613e+00
38 1 4.998001e-01 1.499493e+00 2.999357e+00
39 1 4.999757e-01 9.998285e-01 3.499855e+00
40 1 -3.823100e-04 1.499937e+00 3.500559e+00
41 1 -2.660348e-04 9.999519e-01 4.000154e+00
42 1 5.002280e-01 1.499848e+00 3.999675e+00
43 1 4.993732e-01 1.000426e+00 4.500317e+00
44 1 5.808044e-05 1.500286e+00 4.499375e+00
45 1 -5.676808e-04 9.994411e-01 5.000434e+00
46 1 4.995481e-01 1.499740e+00 4.999668e+00
47 1 5.005196e-01 1.000553e+00 5.500523e+00
48 1 -3.109941e-04 1.499954e+00 5.500189e+00
49 1 -5.048725e-04 1.999779e+00 5.948687e-04
50 1 4.994636e-01 2.499503e+00 -1.591021e-04
51 1 4.999605e-01 1.999688e+00 4.993762e-01
52 1 5.251971e-04 2.500351e+00 5.000893e-01
53 1 -3.582850e-05 1.999667e+00 1.000149e+00
54 1 5.004788e-01 2.500467e+00 9.997675e-01
55 1 4.999603e-01 1.999963e+00 1.499664e+00
56 1 -5.778930e-04 2.499777e+00 1.500188e+00
57 1 5.113178e-04 2.000286e+00 1.999610e+00
58 1 5.001444e-01 2.500232e+00 2.000350e+00
59 1 4.999478e-01 1.999604e+00 2.500138e+00
60 1 2.165781e-04 2.499899e+00 2.500368e+00
61 1 -6.336828e-05 2.000609e+00 2.999737e+00
62 1 4.994095e-01 2.499417e+00 2.999632e+00
63 1 4.995494e-01 1.999962e+00 3.499821e+00
64 1 2.322852e-04 2.499417e+00 3.499364e+00
65 1 1.996764e-04 1.999845e+00 4.000615e+00
66 1 4.998190e-01 2.500503e+00 3.999395e+00
67 1 5.002368e-01 2.000523e+00 4.500099e+00
68 1 2.996802e-04 2.499979e+00 4.500038e+00
69 1 -2.670566e-04 1.999714e+00 5.000373e+00
70 1 4.999075e-01 2.499941e+00 4.999626e+00
71 1 4.995816e-01 2.000504e+00 5.499950e+00
72 1 -4.513480e-04 2.500424e+00 5.500215e+00
73 1 -1.696231e-04 2.999640e+00 3.680336e-04
74 1 5.003865e-01 3.499603e+00 -4.220296e-04
75 1 5.000868e-01 2.999532e+00 4.994981e-01
76 1 1.368169e-04 3.499950e+00 4.994560e-01
77 1 -9.290135e-05 3.000619e+00 1.000452e+00
78 1 4.997552e-01 3.500481e+00 1.000241e+00
79 1 5.005324e-01 2.999498e+00 1.499901e+00
80 1 4.919280e-04 3.500105e+00 1.499806e+00
81 1 3.243960e-04 2.999778e+00 1.999611e+00
82 1 5.005494e-01 3.500369e+00 2.000434e+00
83 1 5.001963e-01 3.000056e+00 2.500506e+00
84 1 4.772231e-04 3.500494e+00 2.500065e+00
85 1 4.251807e-04 3.000007e+00 3.000338e+00
86 1 5.004725e-01 3.500479e+00 3.000300e+00
87 1 5.006152e-01 2.999685e+00 3.500044e+00
88 1 5.516188e-04 3.500161e+00 3.500450e+00
89 1 3.571750e-04 2.999604e+00 3.999640e+00
90 1 5.005287e-01 3.499849e+00 3.999856e+00
91 1 4.999224e-01 3.000255e+00 4.500237e+00
92 1 -3.484061e-04 3.500430e+00 4.499383e+00
93 1 -3.853271e-04 3.000039e+00 4.999813e+00
94 1 5.003322e-01 3.499431e+00 5.000162e+00
95 1 4.999023e-01 2.999368e+00 5.499779e+00
96 1 -3.259854e-04 3.499437e+00 5.500636e+00
97 1 -3.298371e-04 3.999844e+00 -4.641667e-04
98 1 5.006195e-01 4.500535e+00 -2.251040e-04
99 1 5.006655e-01 3.999815e+00 5.000959e-01
100 1 4.526948e-05 4.499936e+00 5.003622e-01
101 1 -4.263163e-04 4.000322e+00 9.995024e-01
102 1 4.993741e-01 4.499466e+00 1.000322e+00
103 1 4.999972e-01 3.999354e+00 1.499796e+00
104 1 1.784677e-05 4.500240e+00 1.499648e+00
105 1 3.911791e-04 4.000479e+00 2.000439e+00
106 1 5.003792e-01 4.500154e+00 1.999537e+00
107 1 5.002634e-01 4.000597e+00 2.500379e+00
108 1 2.445710e-04 4.500059e+00 2.500161e+00
109 1 -1.088654e-04 3.999388e+00 2.999999e+00
110 1 5.001118e-01 4.500294e+00 2.999517e+00
111 1 5.005952e-01 3.999814e+00 3.499978e+00
112 1 -1.630821e-04 4.500139e+00 3.499669e+00
113 1 5.308545e-04 4.000329e+00 4.000395e+00
114 1 4.996976e-01 4.499510e+00 4.000545e+00
115 1 5.004215e-01 4.000248e+00 4.499362e+00
116 1 3.225986e-04 4.499534e+00 4.500499e+00
117 1 3.446814e-04 3.999377e+00 5.000347e+00
118 1 5.003378e-01 4.499609e+00 5.000399e+00
119 1 5.003889e-01 3.999833e+00 5.500048e+00
120 1 6.629294e-04 4.500114e+00 5.499750e+00
121 1 1.350550e-05 5.000233e+00 -3.455506e-04
122 1 4.995914e-01 5.499747e+00 4.281390e-04
123 1 4.995929e-01 4.999535e+00 4.999672e-01
124 1 5.345118e-04 5.500565e+00 4.994030e-01
125 1 -5.085192e-04 4.999722e+00 9.995136e-01
126 1 4.998816e-01 5.499969e+00 1.000605e+00
127 1 4.995447e-01 4.999918e+00 1.500515e+00
128 1 5.305542e-04 5.500493e+00 1.500264e+00
129 1 2.906235e-04 5.000192e+00 2.000209e+00
130 1 5.000386e-01 5.499815e+00 2.000439e+00
131 1 5.005152e-01 4.999497e+00 2.499988e+00
132 1 6.136975e-04 5.499963e+00 2.499511e+00
133 1 -5.141939e-04 4.999452e+00 3.000129e+00
134 1 4.997648e-01 5.500337e+00 3.000259e+00
135 1 4.995196e-01 4.999457e+00 3.499731e+00
136 1 -2.182736e-04 5.500139e+00 3.500548e+00
137 1 -6.033529e-04 5.000498e+00 4.000395e+00
138 1 4.994298e-01 5.500518e+00 4.000183e+00
139 1 5.004920e-01 5.000337e+00 4.499721e+00
140 1 -1.048898e-04 5.499763e+00 4.499399e+00
141 1 3.386086e-04 5.000234e+00 5.000219e+00
142 1 4.999735e-01 5.499480e+00 5.000405e+00
143 1 5.001785e-01 5.000038e+00 5.500160e+00
144 1 4.556501e-04 5.500100e+00 5.500647e+00
145 1 1.000493e+00 3.618123e-04 -2.646064e-04
146 1 1.499880e+00 5.002571e-01 -5.334139e-04
147 1 1.500196e+00 6.148536e-04 5.002104e-01
148 1 1.000303e+00 4.997047e-01 5.004415e-01
149 1 9.994244e-01 7.510637e-05 1.000182e+00
150 1 1.500099e+00 5.004049e-01 1.000602e+00
151 1 1.499600e+00 -6.581754e-04 1.500547e+00
152 1 1.000417e+00 5.004224e-01 1.500378e+00
153 1 1.000102e+00 1.892087e-04 2.000155e+00
154 1 1.499488e+00 4.998479e-01 1.999816e+00
155 1 1.499480e+00 -4.859860e-05 2.500365e+00
156 1 9.998712e-01 4.996629e-01 2.500325e+00
157 1 9.995110e-01 3.497086e-04 2.999546e+00
158 1 1.500141e+00 5.003849e-01 2.999632e+00
159 1 1.500545e+00 -2.516562e-04 3.499650e+00
160 1 1.000055e+00 4.998562e-01 3.500644e+00
161 1 1.000218e+00 -6.397033e-04 3.999635e+00
162 1 1.499401e+00 4.999263e-01 3.999741e+00
163 1 1.500395e+00 -2.755613e-04 4.500446e+00
164 1 1.000624e+00 4.999185e-01 4.500594e+00
165 1 9.997204e-01 5.488228e-04 5.000431e+00
166 1 1.499859e+00 5.001214e-01 5.000371e+00
167 1 1.499938e+00 -3.538566e-04 5.500380e+00
168 1 9.995709e-01 5.005008e-01 5.500494e+00
169 1 9.998079e-01 1.000452e+00 -6.189834e-04
170 1 1.500338e+00 1.499747e+00 3.526097e-04
171 1 1.500418e+00 9.996760e-01 5.000824e-01
172 1 1.000010e+00 1.499765e+00 5.002313e-01
173 1 1.000004e+00 1.000596e+00 9.998731e-01
174 1 1.499925e+00 1.499770e+00 1.000403e+00
175 1 1.499637e+00 9.997486e-01 1.500071e+00
176 1 1.000670e+00 1.500285e+00 1.499670e+00
177 1 1.000029e+00 1.000176e+00 2.000344e+00
178 1 1.500544e+00 1.500132e+00 1.999512e+00
179 1 1.500321e+00 1.000417e+00 2.499968e+00
180 1 9.995066e-01 1.499909e+00 2.500193e+00
181 1 9.999932e-01 9.997517e-01 2.999452e+00
182 1 1.499782e+00 1.500578e+00 2.999515e+00
183 1 1.500534e+00 1.000559e+00 3.499979e+00
184 1 9.996274e-01 1.499414e+00 3.500179e+00
185 1 1.000046e+00 1.000042e+00 3.999738e+00
186 1 1.499521e+00 1.500552e+00 4.000116e+00
187 1 1.499560e+00 9.997964e-01 4.499856e+00
188 1 1.000238e+00 1.499476e+00 4.499421e+00
189 1 1.000410e+00 9.998723e-01 4.999920e+00
190 1 1.500281e+00 1.500597e+00 5.000344e+00
191 1 1.500453e+00 1.000487e+00 5.500565e+00
192 1 9.999470e-01 1.499792e+00 5.500535e+00
193 1 9.999511e-01 2.000303e+00 -5.307973e-05
194 1 1.499627e+00 2.499792e+00 -4.653895e-05
195 1 1.500121e+00 1.999836e+00 4.998963e-01
196 1 9.998549e-01 2.499927e+00 4.995938e-01
197 1 9.995958e-01 1.999368e+00 1.000636e+00
198 1 1.499916e+00 2.499896e+00 9.999711e-01
199 1 1.499503e+00 2.000162e+00 1.500645e+00
200 1 9.993878e-01 2.500368e+00 1.500057e+00
201 1 1.000170e+00 1.999986e+00 1.999821e+00
202 1 1.500386e+00 2.499353e+00 1.999955e+00
203 1 1.499412e+00 1.999423e+00 2.500132e+00
204 1 9.998869e-01 2.499342e+00 2.499773e+00
205 1 1.000193e+00 2.000589e+00 2.999420e+00
206 1 1.500065e+00 2.499477e+00 2.999774e+00
207 1 1.500100e+00 2.000496e+00 3.499894e+00
208 1 9.996945e-01 2.499736e+00 3.499793e+00
209 1 9.999507e-01 2.000049e+00 3.999436e+00
210 1 1.499470e+00 2.500152e+00 4.000209e+00
211 1 1.500369e+00 2.000488e+00 4.500198e+00
212 1 9.994774e-01 2.499531e+00 4.500398e+00
213 1 1.000177e+00 2.000474e+00 5.000329e+00
214 1 1.500424e+00 2.499711e+00 5.000049e+00
215 1 1.500222e+00 2.000137e+00 5.499868e+00
216 1 1.000419e+00 2.499753e+00 5.499840e+00
217 1 9.998565e-01 3.000331e+00 2.184250e-04
218 1 1.500348e+00 3.499682e+00 5.944840e-04
219 1 1.499513e+00 2.999355e+00 5.003336e-01
220 1 1.000456e+00 3.500392e+00 4.997676e-01
221 1 1.000260e+00 2.999934e+00 1.000040e+00
222 1 1.499642e+00 3.499545e+00 9.999092e-01
223 1 1.499763e+00 2.999345e+00 1.499779e+00
224 1 1.000268e+00 3.499545e+00 1.499498e+00
225 1 1.000341e+00 2.999617e+00 2.000199e+00
226 1 1.499887e+00 3.499364e+00 2.000359e+00
227 1 1.499791e+00 2.999561e+00 2.499773e+00
228 1 9.997328e-01 3.500407e+00 2.499733e+00
229 1 1.000417e+00 3.000142e+00 2.999756e+00
230 1 1.500660e+00 3.499890e+00 2.999933e+00
231 1 1.500614e+00 3.000530e+00 3.499441e+00
232 1 1.000372e+00 3.500001e+00 3.500083e+00
233 1 9.995821e-01 3.000319e+00 4.000445e+00
234 1 1.499735e+00 3.500402e+00 4.000391e+00
235 1 1.499784e+00 2.999345e+00 4.500422e+00
236 1 9.995094e-01 3.499568e+00 4.500124e+00
237 1 9.999462e-01 3.000124e+00 4.999797e+00
238 1 1.500071e+00 3.500617e+00 4.999671e+00
239 1 1.499713e+00 3.000207e+00 5.499477e+00
240 1 1.000018e+00 3.500151e+00 5.500152e+00
241 1 9.993942e-01 4.000059e+00 -1.703098e-04
242 1 1.500500e+00 4.500498e+00 4.479497e-04
243 1 1.500334e+00 3.999714e+00 4.999793e-01
244 1 9.995023e-01 4.500012e+00 5.003437e-01
245 1 9.998032e-01 3.999382e+00 1.000117e+00
246 1 1.500662e+00 4.500480e+00 1.000002e+00
247 1 1.500390e+00 3.999753e+00 1.500257e+00
248 1 1.000295e+00 4.500459e+00 1.500064e+00
249 1 1.000478e+00 4.000062e+00 2.000549e+00
250 1 1.499868e+00 4.500221e+00 1.999924e+00
251 1 1.499562e+00 4.000474e+00 2.500632e+00
252 1 1.000273e+00 4.500012e+00 2.499695e+00
253 1 9.998901e-01 3.999425e+00 3.000070e+00
254 1 1.499653e+00 4.500033e+00 3.000169e+00
255 1 1.500036e+00 4.000086e+00 3.500360e+00
256 1 9.993973e-01 4.500279e+00 3.500320e+00
257 1 1.000302e+00 3.999743e+00 3.999779e+00
258 1 1.499509e+00 4.500345e+00 3.999678e+00
259 1 1.499858e+00 3.999966e+00 4.499943e+00
260 1 1.000424e+00 4.499950e+00 4.499415e+00
261 1 9.996028e-01 4.000007e+00 5.000397e+00
262 1 1.499936e+00 4.499944e+00 5.000290e+00
263 1 1.500660e+00 3.999766e+00 5.499585e+00
264 1 1.000029e+00 4.499630e+00 5.499687e+00
265 1 1.000033e+00 5.000227e+00 5.595475e-05
266 1 1.500411e+00 5.499670e+00 4.793301e-04
267 1 1.500103e+00 4.999979e+00 5.003899e-01
268 1 9.996398e-01 5.500110e+00 4.994287e-01
269 1 9.998823e-01 5.000057e+00 9.999128e-01
270 1 1.500291e+00 5.500209e+00 9.999456e-01
271 1 1.500202e+00 5.000444e+00 1.499653e+00
272 1 9.999061e-01 5.500603e+00 1.499402e+00
273 1 9.995995e-01 4.999831e+00 2.000138e+00
274 1 1.500519e+00 5.499433e+00 2.000257e+00
275 1 1.499907e+00 5.000280e+00 2.499976e+00
276 1 1.000293e+00 5.499560e+00 2.500460e+00
277 1 1.000627e+00 5.000586e+00 3.000085e+00
278 1 1.500261e+00 5.499825e+00 2.999938e+00
279 1 1.500140e+00 4.999838e+00 3.499487e+00
280 1 1.000161e+00 5.499812e+00 3.500211e+00
281 1 1.000233e+00 5.000363e+00 3.999494e+00
282 1 1.499867e+00 5.499632e+00 3.999881e+00
283 1 1.499887e+00 4.999942e+00 4.499683e+00
284 1 1.000453e+00 5.500315e+00 4.499928e+00
285 1 9.994605e-01 5.000479e+00 4.999697e+00
286 1 1.499625e+00 5.500094e+00 5.000057e+00
287 1 1.500666e+00 5.000377e+00 5.500086e+00
288 1 9.997723e-01 5.500454e+00 5.500402e+00
289 1 2.000525e+00 9.757647e-05 2.009738e-05
290 1 2.499657e+00 5.000977e-01 1.624651e-04
291 1 2.500462e+00 -6.386380e-04 5.006033e-01
292 1 1.999896e+00 4.999754e-01 5.005349e-01
293 1 2.000092e+00 6.203880e-04 9.994245e-01
294 1 2.500433e+00 4.998218e-01 1.000258e+00
295 1 2.499775e+00 3.322298e-04 1.500218e+00
296 1 1.999513e+00 4.999811e-01 1.500177e+00
297 1 2.000275e+00 2.774565e-04 1.999430e+00
298 1 2.499631e+00 5.002895e-01 2.000202e+00
299 1 2.499694e+00 -5.368020e-04 2.500262e+00
300 1 2.000437e+00 4.996924e-01 2.499814e+00
301 1 1.999436e+00 2.706668e-04 2.999962e+00
302 1 2.500338e+00 5.003724e-01 2.999686e+00
303 1 2.499601e+00 -2.859116e-04 3.499764e+00
304 1 1.999865e+00 4.999031e-01 3.500392e+00
305 1 2.000097e+00 5.887919e-05 3.999740e+00
306 1 2.500411e+00 4.994511e-01 3.999467e+00
307 1 2.500152e+00 -2.347677e-04 4.499480e+00
308 1 2.000608e+00 4.995928e-01 4.499669e+00
309 1 1.999552e+00 -6.503637e-04 5.000253e+00
310 1 2.500550e+00 5.001722e-01 5.000449e+00
311 1 2.499848e+00 6.031821e-04 5.499471e+00
312 1 1.999755e+00 4.995119e-01 5.499914e+00
313 1 2.000187e+00 9.995057e-01 -3.497980e-05
314 1 2.500276e+00 1.500504e+00 1.571775e-05
315 1 2.500309e+00 1.000100e+00 5.004454e-01
316 1 1.999744e+00 1.500210e+00 5.003768e-01
317 1 1.999818e+00 1.000488e+00 1.000503e+00
318 1 2.500455e+00 1.500357e+00 9.997426e-01
319 1 2.499956e+00 1.000530e+00 1.499824e+00
320 1 1.999817e+00 1.499499e+00 1.499978e+00
321 1 2.000456e+00 1.000500e+00 1.999825e+00
322 1 2.499714e+00 1.500037e+00 2.000445e+00
323 1 2.500614e+00 1.000595e+00 2.499908e+00
324 1 1.999646e+00 1.500520e+00 2.500323e+00
325 1 1.999544e+00 1.000412e+00 3.000475e+00
326 1 2.500280e+00 1.499480e+00 3.000530e+00
327 1 2.500121e+00 9.999005e-01 3.500014e+00
328 1 2.000562e+00 1.499598e+00 3.499373e+00
329 1 1.999590e+00 1.000621e+00 3.999957e+00
330 1 2.500592e+00 1.499736e+00 3.999585e+00
331 1 2.500562e+00 1.000283e+00 4.500579e+00
332 1 1.999783e+00 1.499981e+00 4.500271e+00
333 1 1.999941e+00 1.000080e+00 4.999962e+00
334 1 2.499897e+00 1.499669e+00 4.999508e+00
335 1 2.499815e+00 1.000366e+00 5.500117e+00
336 1 1.999431e+00 1.499678e+00 5.500221e+00
337 1 1.999758e+00 2.000435e+00 5.825138e-04
338 1 2.500265e+00 2.499366e+00 2.674594e-05
339 1 2.500660e+00 2.000284e+00 5.003896e-01
340 1 1.999794e+00 2.500373e+00 4.996128e-01
341 1 1.999521e+00 1.999638e+00 1.000086e+00
342 1 2.500381e+00 2.500552e+00 1.000173e+00
343 1 2.500049e+00 2.000506e+00 1.499392e+00
344 1 1.999507e+00 2.500061e+00 1.500268e+00
345 1 2.000542e+00 2.000539e+00 2.000428e+00
346 1 2.500401e+00 2.500469e+00 1.999405e+00
347 1 2.500474e+00 1.999805e+00 2.499675e+00
348 1 1.999982e+00 2.499765e+00 2.500027e+00
349 1 2.000186e+00 2.000074e+00 3.000275e+00
350 1 2.499961e+00 2.500609e+00 3.000149e+00
351 1 2.499917e+00 2.000409e+00 3.499674e+00
352 1 2.000538e+00 2.499597e+00 3.500012e+00
353 1 2.000054e+00 1.999726e+00 4.000629e+00
354 1 2.500626e+00 2.500588e+00 3.999999e+00
355 1 2.499554e+00 2.000112e+00 4.500236e+00
356 1 1.999672e+00 2.499818e+00 4.499552e+00
357 1 2.000151e+00 2.000544e+00 4.999568e+00
358 1 2.499626e+00 2.499770e+00 4.999355e+00
359 1 2.500043e+00 1.999866e+00 5.500362e+00
360 1 2.000531e+00 2.500391e+00 5.499482e+00
361 1 1.999685e+00 2.999582e+00 2.215948e-04
362 1 2.500207e+00 3.499647e+00 -6.452948e-04
363 1 2.499776e+00 2.999790e+00 5.001034e-01
364 1 2.000245e+00 3.499569e+00 4.996432e-01
365 1 1.999380e+00 3.000529e+00 1.000401e+00
366 1 2.500054e+00 3.499716e+00 1.000141e+00
367 1 2.500164e+00 2.999940e+00 1.500199e+00
368 1 2.000117e+00 3.500338e+00 1.499791e+00
369 1 2.000245e+00 3.000089e+00 2.000218e+00
370 1 2.499889e+00 3.500552e+00 2.000601e+00
371 1 2.499884e+00 3.000582e+00 2.499835e+00
372 1 2.000384e+00 3.499621e+00 2.499745e+00
373 1 2.000110e+00 2.999964e+00 2.999707e+00
374 1 2.500591e+00 3.499832e+00 3.000135e+00
375 1 2.499713e+00 3.000135e+00 3.500527e+00
376 1 2.000154e+00 3.499587e+00 3.500428e+00
377 1 1.999744e+00 3.000219e+00 3.999452e+00
378 1 2.499422e+00 3.500247e+00 3.999692e+00
379 1 2.499782e+00 3.000360e+00 4.499411e+00
380 1 2.000583e+00 3.499529e+00 4.500193e+00
381 1 2.000481e+00 2.999594e+00 4.999927e+00
382 1 2.500181e+00 3.499592e+00 5.000358e+00
383 1 2.499825e+00 3.000534e+00 5.499773e+00
384 1 1.999798e+00 3.500306e+00 5.500099e+00
385 1 1.999664e+00 4.000066e+00 -4.745461e-04
386 1 2.499447e+00 4.500468e+00 3.502925e-04
387 1 2.500556e+00 4.000535e+00 5.003145e-01
388 1 2.000443e+00 4.499580e+00 5.004251e-01
389 1 1.999385e+00 3.999767e+00 1.000506e+00
390 1 2.499688e+00 4.500572e+00 1.000121e+00
391 1 2.499972e+00 4.000361e+00 1.500200e+00
392 1 2.000319e+00 4.500058e+00 1.499710e+00
393 1 1.999678e+00 3.999642e+00 2.000115e+00
394 1 2.500554e+00 4.499587e+00 2.000236e+00
395 1 2.499648e+00 3.999664e+00 2.500202e+00
396 1 1.999628e+00 4.500045e+00 2.499554e+00
397 1 2.000367e+00 4.000604e+00 2.999886e+00
398 1 2.499373e+00 4.500372e+00 3.000212e+00
399 1 2.500044e+00 4.000269e+00 3.499425e+00
400 1 2.000291e+00 4.499432e+00 3.500015e+00
401 1 1.999396e+00 4.000450e+00 4.000528e+00
402 1 2.499807e+00 4.500455e+00 4.000515e+00
403 1 2.500640e+00 4.000193e+00 4.499655e+00
404 1 2.000477e+00 4.500110e+00 4.500278e+00
405 1 1.999840e+00 3.999347e+00 4.999481e+00
406 1 2.499943e+00 4.499897e+00 4.999922e+00
407 1 2.500143e+00 4.000311e+00 5.500259e+00
408 1 1.999602e+00 4.499465e+00 5.499410e+00
409 1 2.000262e+00 5.000182e+00 6.167576e-04
410 1 2.499957e+00 5.499379e+00 -3.020955e-04
411 1 2.500365e+00 4.999367e+00 5.004751e-01
412 1 2.000012e+00 5.499655e+00 5.000707e-01
413 1 2.000128e+00 4.999399e+00 1.000016e+00
414 1 2.499639e+00 5.499604e+00 1.000228e+00
415 1 2.500623e+00 4.999966e+00 1.499413e+00
416 1 2.000048e+00 5.499956e+00 1.500367e+00
417 1 1.999573e+00 5.000055e+00 2.000097e+00
418 1 2.499483e+00 5.499788e+00 2.000438e+00
419 1 2.500096e+00 5.000056e+00 2.499552e+00
420 1 1.999851e+00 5.499794e+00 2.500064e+00
421 1 1.999526e+00 4.999335e+00 3.000250e+00
422 1 2.500065e+00 5.500118e+00 2.999746e+00
423 1 2.500087e+00 5.000278e+00 3.499773e+00
424 1 2.000522e+00 5.499993e+00 3.499518e+00
425 1 2.000630e+00 5.000078e+00 4.000022e+00
426 1 2.499408e+00 5.500088e+00 3.999456e+00
427 1 2.499825e+00 5.000403e+00 4.499850e+00
428 1 2.000382e+00 5.500053e+00 4.499373e+00
429 1 2.000553e+00 4.999705e+00 4.999716e+00
430 1 2.500344e+00 5.499877e+00 4.999527e+00
431 1 2.499776e+00 5.000197e+00 5.500278e+00
432 1 1.999723e+00 5.500602e+00 5.500339e+00
433 1 2.999512e+00 2.935018e-06 1.186858e-04
434 1 3.499452e+00 4.995223e-01 2.526996e-04
435 1 3.500556e+00 6.104135e-04 4.998469e-01
436 1 3.000057e+00 5.000450e-01 5.001492e-01
437 1 2.999459e+00 -2.173621e-04 1.000185e+00
438 1 3.499643e+00 4.994187e-01 1.000454e+00
439 1 3.500569e+00 -4.435368e-04 1.500482e+00
440 1 3.000000e+00 5.000186e-01 1.500168e+00
441 1 3.000036e+00 4.396075e-04 2.000514e+00
442 1 3.499376e+00 5.003546e-01 2.000218e+00
443 1 3.500231e+00 2.911724e-04 2.499355e+00
444 1 2.999913e+00 5.002497e-01 2.499600e+00
445 1 3.000182e+00 3.264548e-04 2.999565e+00
446 1 3.500220e+00 5.005488e-01 2.999494e+00
447 1 3.500126e+00 4.852711e-05 3.500330e+00
448 1 2.999403e+00 4.995878e-01 3.499975e+00
449 1 2.999623e+00 -7.990802e-05 4.000485e+00
450 1 3.500196e+00 5.001722e-01 3.999684e+00
451 1 3.499625e+00 1.434367e-04 4.499526e+00
452 1 3.000114e+00 5.005325e-01 4.500332e+00
453 1 3.000240e+00 5.605344e-04 5.000541e+00
454 1 3.499538e+00 5.006305e-01 5.000584e+00
455 1 3.499620e+00 -1.855257e-04 5.499803e+00
456 1 2.999878e+00 5.002536e-01 5.500214e+00
457 1 3.000505e+00 1.000332e+00 -6.173498e-04
458 1 3.500434e+00 1.500282e+00 3.765952e-05
459 1 3.500388e+00 1.000004e+00 5.002169e-01
460 1 3.000429e+00 1.500276e+00 4.999285e-01
461 1 2.999639e+00 1.000267e+00 1.000435e+00
462 1 3.499587e+00 1.500540e+00 1.000300e+00
463 1 3.499461e+00 9.996518e-01 1.500459e+00
464 1 2.999410e+00 1.500041e+00 1.500324e+00
465 1 2.999544e+00 1.000016e+00 2.000142e+00
466 1 3.500204e+00 1.499470e+00 2.000288e+00
467 1 3.500230e+00 9.999012e-01 2.500645e+00
468 1 2.999487e+00 1.500492e+00 2.499467e+00
469 1 2.999923e+00 1.000455e+00 2.999935e+00
470 1 3.499643e+00 1.500264e+00 2.999614e+00
471 1 3.499983e+00 9.993752e-01 3.499372e+00
472 1 3.000371e+00 1.500380e+00 3.499653e+00
473 1 2.999440e+00 9.999203e-01 3.999729e+00
474 1 3.500281e+00 1.499921e+00 4.000032e+00
475 1 3.500319e+00 1.000361e+00 4.499766e+00
476 1 2.999492e+00 1.500498e+00 4.500623e+00
477 1 3.000629e+00 9.996480e-01 4.999633e+00
478 1 3.500169e+00 1.500521e+00 4.999801e+00
479 1 3.500188e+00 9.995363e-01 5.500560e+00
480 1 3.000324e+00 1.500181e+00 5.500434e+00
481 1 3.000353e+00 1.999571e+00 2.266976e-04
482 1 3.499984e+00 2.499837e+00 -1.026156e-04
483 1 3.499576e+00 2.000337e+00 5.001390e-01
484 1 3.000238e+00 2.499845e+00 4.999153e-01
485 1 3.000173e+00 2.000287e+00 9.995962e-01
486 1 3.500515e+00 2.499671e+00 9.994343e-01
487 1 3.500259e+00 2.000519e+00 1.499606e+00
488 1 2.999944e+00 2.499840e+00 1.500093e+00
489 1 2.999583e+00 1.999785e+00 1.999449e+00
490 1 3.499521e+00 2.499639e+00 2.000402e+00
491 1 3.499757e+00 1.999381e+00 2.500305e+00
492 1 2.999969e+00 2.500541e+00 2.500605e+00
493 1 2.999866e+00 1.999952e+00 2.999724e+00
494 1 3.499890e+00 2.499524e+00 3.000353e+00
495 1 3.499456e+00 1.999345e+00 3.500477e+00
496 1 3.000116e+00 2.500444e+00 3.500297e+00
497 1 3.000207e+00 2.000138e+00 3.999676e+00
498 1 3.500110e+00 2.499908e+00 3.999934e+00
499 1 3.500031e+00 2.000051e+00 4.500383e+00
500 1 2.999431e+00 2.499363e+00 4.500559e+00
501 1 2.999688e+00 2.000062e+00 5.000213e+00
502 1 3.499562e+00 2.499872e+00 4.999754e+00
503 1 3.499421e+00 2.000396e+00 5.500471e+00
504 1 3.000461e+00 2.499464e+00 5.499626e+00
505 1 2.999687e+00 3.000034e+00 2.281109e-04
506 1 3.500287e+00 3.499400e+00 4.574393e-04
507 1 3.499578e+00 3.000472e+00 4.997269e-01
508 1 2.999604e+00 3.500338e+00 5.000216e-01
509 1 2.999517e+00 3.000424e+00 1.000490e+00
510 1 3.499408e+00 3.500197e+00 9.996908e-01
511 1 3.500041e+00 3.000547e+00 1.500141e+00
512 1 2.999628e+00 3.499701e+00 1.500292e+00
513 1 3.000339e+00 2.999475e+00 1.999956e+00
514 1 3.499628e+00 3.500010e+00 2.000353e+00
515 1 3.500316e+00 3.000410e+00 2.500070e+00
516 1 3.000056e+00 3.499809e+00 2.500478e+00
517 1 2.999534e+00 2.999710e+00 2.999697e+00
518 1 3.499425e+00 3.499804e+00 3.000171e+00
519 1 3.499383e+00 3.000338e+00 3.499857e+00
520 1 2.999956e+00 3.500204e+00 3.500639e+00
521 1 2.999937e+00 3.000114e+00 3.999682e+00
522 1 3.499460e+00 3.499383e+00 4.000609e+00
523 1 3.500485e+00 3.000617e+00 4.499785e+00
524 1 2.999571e+00 3.500222e+00 4.499440e+00
525 1 3.000427e+00 2.999737e+00 5.000591e+00
526 1 3.499531e+00 3.500466e+00 4.999459e+00
527 1 3.500476e+00 2.999382e+00 5.500504e+00
528 1 3.000455e+00 3.500493e+00 5.500588e+00
529 1 3.000604e+00 3.999792e+00 5.841066e-04
530 1 3.499676e+00 4.499527e+00 1.901778e-04
531 1 3.499822e+00 3.999705e+00 5.001259e-01
532 1 3.000185e+00 4.500522e+00 5.002427e-01
533 1 3.000609e+00 4.000258e+00 9.998334e-01
534 1 3.499753e+00 4.500059e+00 9.998177e-01
535 1 3.500373e+00 4.000579e+00 1.499446e+00
536 1 3.000248e+00 4.499473e+00 1.499987e+00
537 1 3.000536e+00 3.999703e+00 2.000371e+00
538 1 3.500522e+00 4.500591e+00 1.999784e+00
539 1 3.500223e+00 3.999512e+00 2.499832e+00
540 1 2.999601e+00 4.499553e+00 2.499637e+00
541 1 2.999809e+00 3.999717e+00 2.999827e+00
542 1 3.499495e+00 4.499340e+00 3.000529e+00
543 1 3.499580e+00 4.000480e+00 3.499694e+00
544 1 2.999982e+00 4.499932e+00 3.499700e+00
545 1 2.999565e+00 3.999865e+00 4.000306e+00
546 1 3.500177e+00 4.499494e+00 3.999501e+00
547 1 3.500636e+00 3.999974e+00 4.499442e+00
548 1 3.000578e+00 4.499600e+00 4.499352e+00
549 1 2.999952e+00 3.999654e+00 5.000013e+00
550 1 3.500230e+00 4.499821e+00 5.000520e+00
551 1 3.500481e+00 3.999623e+00 5.499989e+00
552 1 2.999890e+00 4.500096e+00 5.500455e+00
553 1 2.999634e+00 4.999487e+00 1.376132e-04
554 1 3.499678e+00 5.499403e+00 -4.237118e-04
555 1 3.500477e+00 4.999867e+00 5.000295e-01
556 1 2.999761e+00 5.500029e+00 5.003556e-01
557 1 3.000543e+00 4.999907e+00 9.997668e-01
558 1 3.500313e+00 5.500427e+00 1.000389e+00
559 1 3.499770e+00 4.999549e+00 1.500535e+00
560 1 2.999591e+00 5.500623e+00 1.500588e+00
561 1 2.999805e+00 4.999752e+00 1.999595e+00
562 1 3.499635e+00 5.499818e+00 1.999789e+00
563 1 3.499976e+00 4.999852e+00 2.499613e+00
564 1 2.999979e+00 5.500567e+00 2.499596e+00
565 1 3.000265e+00 5.000310e+00 3.000078e+00
566 1 3.499435e+00 5.500041e+00 2.999932e+00
567 1 3.500008e+00 4.999507e+00 3.500546e+00
568 1 2.999437e+00 5.499871e+00 3.499499e+00
569 1 2.999740e+00 5.000578e+00 4.000124e+00
570 1 3.500293e+00 5.499838e+00 4.000004e+00
571 1 3.500496e+00 5.000090e+00 4.500641e+00
572 1 3.000281e+00 5.500550e+00 4.499366e+00
573 1 2.999840e+00 4.999603e+00 4.999646e+00
574 1 3.500213e+00 5.499734e+00 5.000504e+00
575 1 3.500273e+00 5.000012e+00 5.500327e+00
576 1 2.999523e+00 5.500121e+00 5.500435e+00
577 1 3.999716e+00 3.275693e-04 5.657317e-05
578 1 4.500382e+00 5.003785e-01 1.250612e-05
579 1 4.499746e+00 5.076753e-04 4.993565e-01
580 1 3.999410e+00 4.996507e-01 5.003379e-01
581 1 3.999834e+00 2.257779e-04 9.998447e-01
582 1 4.499397e+00 4.998672e-01 1.000119e+00
583 1 4.500145e+00 2.827635e-04 1.500034e+00
584 1 3.999943e+00 5.004792e-01 1.499741e+00
585 1 4.000659e+00 5.232343e-04 2.000293e+00
586 1 4.499603e+00 5.005547e-01 2.000464e+00
587 1 4.499540e+00 8.198962e-05 2.499918e+00
588 1 4.000077e+00 4.996296e-01 2.499737e+00
589 1 4.000437e+00 -6.458162e-04 2.999818e+00
590 1 4.500449e+00 5.003470e-01 2.999662e+00
591 1 4.500030e+00 -4.466732e-04 3.499881e+00
592 1 3.999653e+00 5.005735e-01 3.500000e+00
593 1 3.999889e+00 1.683966e-04 3.999521e+00
594 1 4.499980e+00 4.999684e-01 3.999901e+00
595 1 4.499824e+00 -2.060350e-04 4.500349e+00
596 1 3.999909e+00 4.993747e-01 4.499587e+00
597 1 3.999449e+00 -1.027139e-04 5.000215e+00
598 1 4.500040e+00 5.000925e-01 5.000087e+00
599 1 4.499741e+00 -4.262340e-04 5.499459e+00
600 1 4.000372e+00 4.995421e-01 5.499745e+00
601 1 3.999901e+00 1.000476e+00 -5.045636e-04
602 1 4.500436e+00 1.500322e+00 2.549168e-04
603 1 4.500040e+00 1.000397e+00 4.993792e-01
604 1 3.999937e+00 1.499505e+00 4.996145e-01
605 1 3.999542e+00 9.993733e-01 9.994140e-01
606 1 4.499404e+00 1.499880e+00 9.995371e-01
607 1 4.500431e+00 9.995227e-01 1.500177e+00
608 1 4.000334e+00 1.499953e+00 1.500258e+00
609 1 4.000667e+00 1.000097e+00 1.999921e+00
610 1 4.500104e+00 1.500106e+00 1.999783e+00
611 1 4.500207e+00 9.994844e-01 2.499558e+00
612 1 3.999640e+00 1.499345e+00 2.500309e+00
613 1 3.999687e+00 9.996499e-01 2.999927e+00
614 1 4.499817e+00 1.500607e+00 2.999872e+00
615 1 4.500032e+00 1.000473e+00 3.499993e+00
616 1 3.999862e+00 1.500004e+00 3.500470e+00
617 1 4.000486e+00 1.000300e+00 4.000401e+00
618 1 4.500057e+00 1.500292e+00 4.000379e+00
619 1 4.499774e+00 9.995798e-01 4.499596e+00
620 1 3.999868e+00 1.500423e+00 4.500558e+00
621 1 3.999499e+00 1.000371e+00 4.999486e+00
622 1 4.500419e+00 1.500444e+00 4.999861e+00
623 1 4.500094e+00 9.999733e-01 5.500213e+00
624 1 3.999548e+00 1.500312e+00 5.500466e+00
625 1 4.000370e+00 1.999679e+00 1.080170e-04
626 1 4.499929e+00 2.500629e+00 -4.030092e-04
627 1 4.500574e+00 1.999896e+00 4.999082e-01
628 1 4.000182e+00 2.499680e+00 5.002422e-01
629 1 4.000205e+00 1.999472e+00 9.998136e-01
630 1 4.499734e+00 2.500194e+00 1.000336e+00
631 1 4.499587e+00 1.999494e+00 1.499577e+00
632 1 3.999551e+00 2.499617e+00 1.499692e+00
633 1 4.000473e+00 1.999512e+00 1.999613e+00
634 1 4.500563e+00 2.500543e+00 1.999823e+00
635 1 4.499955e+00 2.000518e+00 2.500137e+00
636 1 3.999640e+00 2.499582e+00 2.500104e+00
637 1 3.999937e+00 2.000493e+00 3.000646e+00
638 1 4.500381e+00 2.500484e+00 3.000575e+00
639 1 4.500124e+00 1.999624e+00 3.499402e+00
640 1 3.999770e+00 2.500631e+00 3.499733e+00
641 1 4.000672e+00 1.999590e+00 3.999611e+00
642 1 4.500285e+00 2.499517e+00 4.000191e+00
643 1 4.499523e+00 1.999614e+00 4.499557e+00
644 1 3.999405e+00 2.499917e+00 4.499990e+00
645 1 3.999536e+00 1.999456e+00 4.999916e+00
646 1 4.499780e+00 2.499628e+00 4.999691e+00
647 1 4.499490e+00 1.999505e+00 5.499858e+00
648 1 3.999515e+00 2.499574e+00 5.499919e+00
649 1 3.999970e+00 2.999793e+00 7.590488e-05
650 1 4.499587e+00 3.499835e+00 2.780694e-04
651 1 4.499624e+00 2.999834e+00 5.002417e-01
652 1 3.999576e+00 3.499868e+00 5.003914e-01
653 1 4.000172e+00 3.000083e+00 9.997329e-01
654 1 4.500281e+00 3.499480e+00 1.000109e+00
655 1 4.500637e+00 3.000560e+00 1.499479e+00
656 1 3.999789e+00 3.499360e+00 1.499774e+00
657 1 3.999832e+00 3.000323e+00 2.000294e+00
658 1 4.500364e+00 3.499957e+00 1.999932e+00
659 1 4.500369e+00 2.999553e+00 2.499503e+00
660 1 3.999389e+00 3.500605e+00 2.500284e+00
661 1 3.999477e+00 2.999511e+00 3.000308e+00
662 1 4.500054e+00 3.500272e+00 2.999808e+00
663 1 4.499405e+00 2.999710e+00 3.499399e+00